
#(C) 2024 by FIZ Karlsruhe - Leibniz Institute for Information Infrastructure.  All rights reserved.
data_104584-ICSD
_database_code_ICSD 104584
_audit_creation_date 2005-04-01
_audit_update_record 2014-08-01
_chemical_name_common 'Iridium uranium (1/1)'
_chemical_formula_structural 'Ir U'
_chemical_formula_sum 'Ir1 U1'
_chemical_name_structure_type IrU
_exptl_crystal_density_diffrn 17.61
_diffrn_ambient_temperature 55.
_citation_title 'The magnetic structure of U Ir'
loop_
_citation_id
_citation_journal_full
_citation_year
_citation_journal_volume
_citation_page_first
_citation_page_last
_citation_journal_id_ASTM
primary 'Journal of Magnetism and Magnetic Materials' 1987 67 323 330 JMMMDC
loop_
_citation_author_citation_id
_citation_author_name
primary 'Dommann, A.'
primary 'Hulliger, F.'
primary 'Siegrist, T.'
primary 'Fischer, P.'
_cell_length_a 5.604(4)
_cell_length_b 10.550(4)
_cell_length_c 5.573(4)
_cell_angle_alpha 90.
_cell_angle_beta 99.12(3)
_cell_angle_gamma 90.
_cell_volume 325.32
_cell_formula_units_Z 8
_space_group_name_H-M_alt 'P 1 21 1'
_space_group_IT_number 4
loop_
_space_group_symop_id
_space_group_symop_operation_xyz
1 '-x, y+1/2, -z'
2 'x, y, z'
loop_
_atom_type_symbol
_atom_type_oxidation_number
Ir0+ 0
U0+ 0
loop_
_atom_site_label
_atom_site_type_symbol
_atom_site_symmetry_multiplicity
_atom_site_Wyckoff_symbol
_atom_site_fract_x
_atom_site_fract_y
_atom_site_fract_z
_atom_site_B_iso_or_equiv
_atom_site_occupancy
Ir1 Ir0+ 2 a 0.082 0.256 0.092 1.3(6) 1.
Ir2 Ir0+ 2 a 0.645 0.246 0.659 1.3(6) 1.
Ir3 Ir0+ 2 a 0.893 0.443 0.398 0.7(5) 1.
Ir4 Ir0+ 2 a 0.347 0.439 0.829 1.5(6) 1.
U1 U0+ 2 a 0.117 0. 0.11 0.9(6) 1.
U2 U0+ 2 a 0.62 0.983 0.658 1.1(8) 1.
U3 U0+ 2 a 0.859 0.713 0.403 1.4(8) 1.
U4 U0+ 2 a 0.41 0.711 0.833 1.4(7) 1.
#End of TTdata_104584-ICSD