
#(C) 2024 by FIZ Karlsruhe - Leibniz Institute for Information Infrastructure.  All rights reserved.
data_630842-ICSD
_database_code_ICSD 630842
_audit_creation_date 2010-02-01
_audit_update_record 2019-02-01
_chemical_name_common 'Erbium nickel (1/1)'
_chemical_formula_structural 'Er Ni'
_chemical_formula_sum 'Er1 Ni1'
_chemical_name_structure_type FeB
_exptl_crystal_density_diffrn 9.62
_citation_title

;
The crystal structure and magnetic properties of the rare-earth nickel (RNi)
compounds
;
_publ_section_comment 'Cell and Type only determined'
loop_
_citation_id
_citation_journal_full
_citation_year
_citation_journal_volume
_citation_page_first
_citation_page_last
_citation_journal_id_ASTM
primary 'Journal of Physics and Chemistry of Solids' 1964 25 1069 1080 JPCSAW
loop_
_citation_author_citation_id
_citation_author_name
primary 'Abrahams, S.C.'
primary 'Bernstein, J.L.'
primary 'Sherwood, R.C.'
primary 'Wernick, J.H.'
primary 'Williams, H.J.'
_cell_length_a 7.000(2)
_cell_length_b 4.118(1)
_cell_length_c 5.414(1)
_cell_angle_alpha 90.
_cell_angle_beta 90.
_cell_angle_gamma 90.
_cell_volume 156.06
_cell_formula_units_Z 4
_space_group_name_H-M_alt 'P n m a'
_space_group_IT_number 62
loop_
_space_group_symop_id
_space_group_symop_operation_xyz
1 'x+1/2, y, -z+1/2'
2 'x, -y+1/2, z'
3 '-x+1/2, y+1/2, z+1/2'
4 '-x, -y, -z'
5 '-x+1/2, -y, z+1/2'
6 '-x, y+1/2, -z'
7 'x+1/2, -y+1/2, -z+1/2'
8 'x, y, z'
loop_
_atom_type_symbol
_atom_type_oxidation_number
Er0+ 0
Ni0+ 0
loop_
_atom_site_label
_atom_site_type_symbol
_atom_site_symmetry_multiplicity
_atom_site_Wyckoff_symbol
_atom_site_fract_x
_atom_site_fract_y
_atom_site_fract_z
_atom_site_B_iso_or_equiv
_atom_site_occupancy
Er1 Er0+ 4 c 0.181 0.25 0.128 . 1.
Ni1 Ni0+ 4 c 0.037 0.25 0.615 . 1.
#End of TTdata_630842-ICSD