
#(C) 2024 by FIZ Karlsruhe - Leibniz Institute for Information Infrastructure.  All rights reserved.
data_187622-ICSD
_database_code_ICSD 187622
_audit_creation_date 2013-08-01
_chemical_name_common 'Nickel silicide (1/1)'
_chemical_formula_structural 'Ni Si'
_chemical_formula_sum 'Ni1 Si1'
_exptl_crystal_density_diffrn 6.19
_diffrn_ambient_temperature 293.
_citation_title

;
High-pressure phase transitions and equations of state in Ni Si. III. A new
high-pressure phase of Ni Si
;
loop_
_citation_id
_citation_journal_full
_citation_year
_citation_journal_volume
_citation_page_first
_citation_page_last
_citation_journal_id_ASTM
primary 'Journal of Applied Crystallography' 2013 46 14 24 JACGAR
loop_
_citation_author_citation_id
_citation_author_name
primary 'Wood, Ian G.'
primary 'Ahmed, Jabraan'
primary 'Dobson, David P.'
primary 'Vocadlo, Lidunka'
_cell_length_a 3.27350(15)
_cell_length_b 3.02662(12)
_cell_length_c 4.69776(6)
_cell_angle_alpha 90.
_cell_angle_beta 90.
_cell_angle_gamma 90.
_cell_volume 46.54
_cell_formula_units_Z 2
_space_group_name_H-M_alt 'P m m n Z'
_space_group_IT_number 59
loop_
_space_group_symop_id
_space_group_symop_operation_xyz
1 'x+1/2, y+1/2, -z'
2 '-x, y+1/2, -z'
3 'x+1/2, -y, -z'
4 '-x, -y, -z'
5 '-x+1/2, -y+1/2, z'
6 'x, -y+1/2, z'
7 '-x+1/2, y, z'
8 'x, y, z'
loop_
_atom_type_symbol
_atom_type_oxidation_number
Ni0+ 0
Si0+ 0
loop_
_atom_site_label
_atom_site_type_symbol
_atom_site_symmetry_multiplicity
_atom_site_Wyckoff_symbol
_atom_site_fract_x
_atom_site_fract_y
_atom_site_fract_z
_atom_site_U_iso_or_equiv
_atom_site_occupancy
Ni1 Ni0+ 2 a 0.25 0.25 0.34422(19) 0.0200(9) 1.
Si1 Si0+ 2 a 0.25 0.25 0.8423(9) 0.0200(9) 1.
#End of TTdata_187622-ICSD