
#(C) 2024 by FIZ Karlsruhe - Leibniz Institute for Information Infrastructure.  All rights reserved.
data_641992-ICSD
_database_code_ICSD 641992
_audit_creation_date 2010-02-01
_audit_update_record 2017-08-01
_chemical_name_common 'Lanthanum tin (1/1)'
_chemical_formula_structural 'La Sn'
_chemical_formula_sum 'La1 Sn1'
_chemical_name_structure_type CaSi#AlTh
_exptl_crystal_density_diffrn 6.78
_citation_title 'Diagram of the system La-Sn'
_publ_section_comment 'Cell and Type only determined'
loop_
_citation_id
_citation_journal_full
_citation_year
_citation_journal_volume
_citation_page_first
_citation_page_last
_citation_journal_id_ASTM
primary

;
Dopovidi Akademii Nauk Ukrains'koi RSR, Seriya B: Geologichni, Khimichni ta
Biologichni Nauki
; 1988 1988 34 39 DANND6
loop_
_citation_author_citation_id
_citation_author_name
primary 'Eremenko, V.N.'
primary 'Bulanova, G.G.'
primary 'Martsenyuk, P.S.'
primary 'Listovnichii, V.E.'
_cell_length_a 4.782(3)
_cell_length_b 11.94(1)
_cell_length_c 4.422(3)
_cell_angle_alpha 90.
_cell_angle_beta 90.
_cell_angle_gamma 90.
_cell_volume 252.48
_cell_formula_units_Z 4
_space_group_name_H-M_alt 'C m c m'
_space_group_IT_number 63
loop_
_space_group_symop_id
_space_group_symop_operation_xyz
1 '-x, y, -z+1/2'
2 '-x, -y, z+1/2'
3 '-x, y, z'
4 '-x, -y, -z'
5 'x, -y, z+1/2'
6 'x, y, -z+1/2'
7 'x, -y, -z'
8 'x, y, z'
9 '-x+1/2, y+1/2, -z+1/2'
10 '-x+1/2, -y+1/2, z+1/2'
11 '-x+1/2, y+1/2, z'
12 '-x+1/2, -y+1/2, -z'
13 'x+1/2, -y+1/2, z+1/2'
14 'x+1/2, y+1/2, -z+1/2'
15 'x+1/2, -y+1/2, -z'
16 'x+1/2, y+1/2, z'
loop_
_atom_type_symbol
_atom_type_oxidation_number
La0+ 0
Sn0+ 0
loop_
_atom_site_label
_atom_site_type_symbol
_atom_site_symmetry_multiplicity
_atom_site_Wyckoff_symbol
_atom_site_fract_x
_atom_site_fract_y
_atom_site_fract_z
_atom_site_B_iso_or_equiv
_atom_site_occupancy
La1 La0+ 4 c 0 0.135 0.25 . 1.
Sn1 Sn0+ 4 c 0 0.42 0.25 . 1.
#End of TTdata_641992-ICSD