
#(C) 2024 by FIZ Karlsruhe - Leibniz Institute for Information Infrastructure.  All rights reserved.
data_102712-ICSD
_database_code_ICSD 102712
_audit_creation_date 2004-10-01
_audit_update_record 2013-08-01
_chemical_name_common 'Cobalt uranium (1/1)'
_chemical_formula_structural 'Co U'
_chemical_formula_sum 'Co1 U1'
_chemical_name_structure_type CoU
_exptl_crystal_density_diffrn 15.37
_citation_title
'Compounds of uranium with the transition metals of the first long period'
loop_
_citation_id
_citation_journal_full
_citation_year
_citation_journal_volume
_citation_page_first
_citation_page_last
_citation_journal_id_ASTM
primary 'Acta Crystallographica' 1950 3 34 40 ACCRA9
loop_
_citation_author_citation_id
_citation_author_name
primary 'Baenziger, N.C.'
primary 'Rundle, R.E.'
primary 'Snow, A.I.'
primary 'Wilson, A.S.'
_cell_length_a 6.3557(4)
_cell_length_b 6.3557
_cell_length_c 6.3557
_cell_angle_alpha 90.
_cell_angle_beta 90.
_cell_angle_gamma 90.
_cell_volume 256.74
_cell_formula_units_Z 8
_space_group_name_H-M_alt 'I 21 3'
_space_group_IT_number 199
loop_
_space_group_symop_id
_space_group_symop_operation_xyz
1 '-z+1/2, -x, y+1/2'
2 '-y+1/2, -z, x+1/2'
3 '-x+1/2, -y, z+1/2'
4 '-z, x+1/2, -y+1/2'
5 '-y, z+1/2, -x+1/2'
6 '-x, y+1/2, -z+1/2'
7 'z+1/2, -x+1/2, -y'
8 'y+1/2, -z+1/2, -x'
9 'x+1/2, -y+1/2, -z'
10 'z, x, y'
11 'y, z, x'
12 'x, y, z'
13 '-z, -x+1/2, y'
14 '-y, -z+1/2, x'
15 '-x, -y+1/2, z'
16 '-z+1/2, x, -y'
17 '-y+1/2, z, -x'
18 '-x+1/2, y, -z'
19 'z, -x, -y+1/2'
20 'y, -z, -x+1/2'
21 'x, -y, -z+1/2'
22 'z+1/2, x+1/2, y+1/2'
23 'y+1/2, z+1/2, x+1/2'
24 'x+1/2, y+1/2, z+1/2'
loop_
_atom_type_symbol
_atom_type_oxidation_number
Co0+ 0
U0+ 0
loop_
_atom_site_label
_atom_site_type_symbol
_atom_site_symmetry_multiplicity
_atom_site_Wyckoff_symbol
_atom_site_fract_x
_atom_site_fract_y
_atom_site_fract_z
_atom_site_B_iso_or_equiv
_atom_site_occupancy
Co1 Co0+ 8 a 0.294 0.294 0.294 . 1.
U1 U0+ 8 a 0.0347 0.0347 0.0347 . 1.
#End of TTdata_102712-ICSD