
#(C) 2024 by FIZ Karlsruhe - Leibniz Institute for Information Infrastructure.  All rights reserved.
data_105403-ICSD
_database_code_ICSD 105403
_audit_creation_date 2004-10-01
_audit_update_record 2013-02-01
_chemical_name_common 'Nickel thorium (1/1)'
_chemical_formula_structural 'Ni Th'
_chemical_formula_sum 'Ni1 Th1'
_chemical_name_structure_type AgSr
_exptl_crystal_density_diffrn 11.17
_citation_title 'Structural redetermination of the Th Ni phase'
loop_
_citation_id
_citation_journal_full
_citation_year
_citation_journal_volume
_citation_page_first
_citation_page_last
_citation_journal_id_ASTM
primary 'Acta Crystallographica, Section C: Crystal Structure Communications'
1983 39 946 947 ACSCEE
loop_
_citation_author_citation_id
_citation_author_name
primary 'Fornasini, M.L.'
_cell_length_a 14.146(6)
_cell_length_b 4.286(3)
_cell_length_c 5.702(3)
_cell_angle_alpha 90.
_cell_angle_beta 90.
_cell_angle_gamma 90.
_cell_volume 345.71
_cell_formula_units_Z 8
_space_group_name_H-M_alt 'P n m a'
_space_group_IT_number 62
loop_
_space_group_symop_id
_space_group_symop_operation_xyz
1 'x+1/2, y, -z+1/2'
2 'x, -y+1/2, z'
3 '-x+1/2, y+1/2, z+1/2'
4 '-x, -y, -z'
5 '-x+1/2, -y, z+1/2'
6 '-x, y+1/2, -z'
7 'x+1/2, -y+1/2, -z+1/2'
8 'x, y, z'
loop_
_atom_type_symbol
_atom_type_oxidation_number
Ni0+ 0
Th0+ 0
loop_
_atom_site_label
_atom_site_type_symbol
_atom_site_symmetry_multiplicity
_atom_site_Wyckoff_symbol
_atom_site_fract_x
_atom_site_fract_y
_atom_site_fract_z
_atom_site_U_iso_or_equiv
_atom_site_occupancy
Ni1 Ni0+ 4 c 0.3543(6) 0.25 0.031(2) 0.022(5) 1.
Ni2 Ni0+ 4 c 0.1050(5) 0.25 0.256(2) 0.017(4) 1.
Th1 Th0+ 4 c 0.2847(2) 0.25 0.5366(4) 0.014(1) 1.
Th2 Th0+ 4 c 0.0344(2) 0.25 0.7479(7) 0.012(1) 1.
#End of TTdata_105403-ICSD