
#(C) 2024 by FIZ Karlsruhe - Leibniz Institute for Information Infrastructure.  All rights reserved.
data_180215-ICSD
_database_code_ICSD 180215
_audit_creation_date 2011-08-01
_audit_update_record 2013-08-01
_chemical_name_common 'Dysprosium silicide (1/1) - (FeB)-type'
_chemical_formula_structural 'Dy Si'
_chemical_formula_sum 'Dy1 Si1'
_chemical_name_structure_type DySi(P21/n)
_exptl_crystal_density_diffrn 7.47
_diffrn_ambient_temperature 5.
_citation_title

;
Magneto structural transition in the Dy Si (Cr B)- and micro-structural
changes in the (Fe B)-type compounds by XRPD and neutron diffraction
;
loop_
_citation_id
_citation_journal_full
_citation_year
_citation_journal_volume
_citation_page_first
_citation_page_last
_citation_journal_id_ASTM
primary 'Journal of Magnetism and Magnetic Materials' 2011 323 903 914 JMMMDC
loop_
_citation_author_citation_id
_citation_author_name
primary 'Schobinger Papamantellos, P.'
primary 'Brunelli, M.'
primary 'Rodriguez Carvajal, J.'
primary 'Buschow, K.H.J.'
primary 'Ritter, C.'
primary 'Gramm, F.'
_cell_length_a 7.86619(1)
_cell_length_b 3.80309(0)
_cell_length_c 5.66678(0)
_cell_angle_alpha 89.9771(1)
_cell_angle_beta 90.
_cell_angle_gamma 90.
_cell_volume 169.53
_cell_formula_units_Z 4
_space_group_name_H-M_alt 'P 21/n 1 1'
_space_group_IT_number 14
loop_
_space_group_symop_id
_space_group_symop_operation_xyz
1 'x+1/2, -y+1/2, -z+1/2'
2 '-x+1/2, y+1/2, z+1/2'
3 '-x, -y, -z'
4 'x, y, z'
loop_
_atom_type_symbol
_atom_type_oxidation_number
Dy0+ 0
Si0+ 0
loop_
_atom_site_label
_atom_site_type_symbol
_atom_site_symmetry_multiplicity
_atom_site_Wyckoff_symbol
_atom_site_fract_x
_atom_site_fract_y
_atom_site_fract_z
_atom_site_B_iso_or_equiv
_atom_site_occupancy
Dy1 Dy0+ 4 e 0.179160(3) 0.25 0.11460(3) 0.279(3) 1.
Si1 Si0+ 4 e 0.03794(13) 0.25 0.62845(22) 0.508(14) 1.
#End of TTdata_180215-ICSD