
#(C) 2024 by FIZ Karlsruhe - Leibniz Institute for Information Infrastructure.  All rights reserved.
data_646875-ICSD
_database_code_ICSD 646875
_audit_creation_date 2020-08-01
_chemical_name_common 'Nickel terbium (1/1)'
_chemical_formula_structural 'Ni Tb'
_chemical_formula_sum 'Ni1 Tb1'
_chemical_name_structure_type TlI
_exptl_crystal_density_diffrn 9.23
_citation_title
'Magnetic and structural characteristics of lanthanide - nickel compounds'
_publ_section_comment 'Cell and Type only determined'
loop_
_citation_id
_citation_journal_full
_citation_year
_citation_journal_volume
_citation_page_first
_citation_page_last
_citation_journal_id_ASTM
primary 'Journal of Chemical Physics' 1964 41 1587 1591 JCPSA6
loop_
_citation_author_citation_id
_citation_author_name
primary 'Walline, R.E.'
primary 'Wallace, W.E.'
_cell_length_a 3.70(4)
_cell_length_b 10.10(10)
_cell_length_c 4.19(4)
_cell_angle_alpha 90.
_cell_angle_beta 90.
_cell_angle_gamma 90.
_cell_volume 156.58
_cell_formula_units_Z 4
_space_group_name_H-M_alt 'C m c m'
_space_group_IT_number 63
loop_
_space_group_symop_id
_space_group_symop_operation_xyz
1 '-x, y, -z+1/2'
2 '-x, -y, z+1/2'
3 '-x, y, z'
4 '-x, -y, -z'
5 'x, -y, z+1/2'
6 'x, y, -z+1/2'
7 'x, -y, -z'
8 'x, y, z'
9 '-x+1/2, y+1/2, -z+1/2'
10 '-x+1/2, -y+1/2, z+1/2'
11 '-x+1/2, y+1/2, z'
12 '-x+1/2, -y+1/2, -z'
13 'x+1/2, -y+1/2, z+1/2'
14 'x+1/2, y+1/2, -z+1/2'
15 'x+1/2, -y+1/2, -z'
16 'x+1/2, y+1/2, z'
loop_
_atom_type_symbol
_atom_type_oxidation_number
Tb0+ 0
Ni0+ 0
loop_
_atom_site_label
_atom_site_type_symbol
_atom_site_symmetry_multiplicity
_atom_site_Wyckoff_symbol
_atom_site_fract_x
_atom_site_fract_y
_atom_site_fract_z
_atom_site_B_iso_or_equiv
_atom_site_occupancy
Tb1 Tb0+ 4 c 0 0.135 0.25 . 1.
Ni1 Ni0+ 4 c 0 0.425 0.25 . 1.
#End of TTdata_646875-ICSD